                         Program Version 5.0.3 -  RELEASE  -
|  1> ! B3LYP def2-TZVP  TightSCF
|  2> %PAL
|  3> nprocs 8
|  4> end
|  5> %maxcore 3800
|  6> %scf
|  7> maxiter 1000
|  8> end
|  9> #%elprop
| 10> #polar 1
| 11> #end
| 12> %TDDFT
| 13> NROOTS 10
| 14> TDA False
| 15> DoNTO True
| 16> #iroot 2
| 17> END
| 18> #%ESD
| 19> #GSHESSIAN "MV.hess"
| 20> #LASERE 19317.6, 29225.3, 33303.2, 36867.2, 8333
| 21> #END
| 22>
| 23>
| 24> * xyz 1 2
| 25>   C   -0.02571791116983      0.00828534518343      3.89374794042933
| 26>   C   -0.00798216123215     -1.16370321667784      1.75964300217489
| 27>   C   -0.02573547567890      1.18383756619903      1.76157633669080
| 28>   C   -0.03111310338271      1.20912070887423      3.12177345720018
| 29>   C   -0.01369155118806     -1.19120784409193      3.11989837429638
| 30>   H   0.00275548395963     -2.06703772553412      1.16730412336271
| 31>   H   -0.03037506077339      2.08807741195387      1.17048700448880
| 32>   H   -0.04525416808874      2.18020261487319      3.59187209898332
| 33>   H   -0.00964217027470     -2.16314980123416      3.58840580462891
| 34>   N   -0.01923119522844      0.01051692663114      1.06306607414248
| 35>   C   0.05530410261374      0.01350461139222     -0.40066728230581
| 36>   H   1.09524800677609      0.04135495974582     -0.73071745475833
| 37>   H   -0.46901623532095      0.88444367487090     -0.78780155079044
| 38>   H   -0.42153827138504     -0.88382942483018     -0.78842501306722
| 39>   C   -0.03534401477966      0.00719976000083      5.32137274305138
| 40>   C   -0.05039174979362     -1.19364087393148      6.09321811342492
| 41>   C   -0.03448731677646      1.20669318673904      6.09530428621601
| 42>   C   -0.04647792211354      1.17919121038618      7.45553063831469
| 43>   C   -0.06277179688273     -1.16835554168923      7.45335879429720
| 44>   H   -0.05802796265526     -2.16472972043479      5.62298065017647
| 45>   H   -0.02517386649043      2.17863951183965      5.62688386151860
| 46>   H   -0.04422460698703      2.08254728452135      8.04792146698689
| 47>   H   -0.07476349535107     -2.07259600656990      8.04434932632864
| 48>   N   -0.06582738554875      0.00498637311124      8.15190405707315
| 49>   C   -0.01054506005800      0.00170548222042      9.61649453678526
| 50>   H   1.02483829609278     -0.03073631781518      9.96015087384013
| 51>   H   -0.54380285575984     -0.86685569124208      9.99677164340116
| 52>   H   -0.48839755252296      0.90119253550835      9.99791409310898
| 53> *
| 54>
| 55>                          ****END OF INPUT****

CARTESIAN COORDINATES (ANGSTROEM)
---------------------------------
  C     -0.025718    0.008285    3.893748
  C     -0.007982   -1.163703    1.759643
  C     -0.025735    1.183838    1.761576
  C     -0.031113    1.209121    3.121773
  C     -0.013692   -1.191208    3.119898
  H      0.002755   -2.067038    1.167304
  H     -0.030375    2.088077    1.170487
  H     -0.045254    2.180203    3.591872
  H     -0.009642   -2.163150    3.588406
  N     -0.019231    0.010517    1.063066
  C      0.055304    0.013505   -0.400667
  H      1.095248    0.041355   -0.730717
  H     -0.469016    0.884444   -0.787802
  H     -0.421538   -0.883829   -0.788425
  C     -0.035344    0.007200    5.321373
  C     -0.050392   -1.193641    6.093218
  C     -0.034487    1.206693    6.095304
  C     -0.046478    1.179191    7.455531
  C     -0.062772   -1.168356    7.453359
  H     -0.058028   -2.164730    5.622981
  H     -0.025174    2.178640    5.626884
  H     -0.044225    2.082547    8.047921
  H     -0.074763   -2.072596    8.044349
  N     -0.065827    0.004986    8.151904
  C     -0.010545    0.001705    9.616495
  H      1.024838   -0.030736    9.960151
  H     -0.543803   -0.866856    9.996772
  H     -0.488398    0.901193    9.997914

 Total Charge           Charge          ....    1
 Multiplicity           Mult            ....    2
 Number of Electrons    NEL             ....   99
 Basis Dimension        Dim             ....  518

ORBITAL ENERGIES
----------------
                 SPIN UP ORBITALS
  NO   OCC          E(Eh)            E(eV)
   0   1.0000     -14.522709      -395.1830
   1   1.0000     -14.522704      -395.1829
   2   1.0000     -10.353527      -281.7338
   3   1.0000     -10.353516      -281.7335
   4   1.0000     -10.353443      -281.7315
   5   1.0000     -10.353435      -281.7313
   6   1.0000     -10.337916      -281.3090
   7   1.0000     -10.337914      -281.3090
   8   1.0000     -10.330201      -281.0991
   9   1.0000     -10.329761      -281.0871
  10   1.0000     -10.314612      -280.6749
  11   1.0000     -10.314600      -280.6745
  12   1.0000     -10.314531      -280.6726
  13   1.0000     -10.314520      -280.6724
  14   1.0000      -1.133684       -30.8491
  15   1.0000      -1.133185       -30.8355
  16   1.0000      -0.989502       -26.9257
  17   1.0000      -0.945299       -25.7229
  18   1.0000      -0.918572       -24.9956
  19   1.0000      -0.913609       -24.8606
  20   1.0000      -0.877452       -23.8767
  21   1.0000      -0.840621       -22.8745
  22   1.0000      -0.798069       -21.7166
  23   1.0000      -0.793932       -21.6040
  24   1.0000      -0.774613       -21.0783
  25   1.0000      -0.743526       -20.2324
  26   1.0000      -0.686202       -18.6725
  27   1.0000      -0.659859       -17.9557
  28   1.0000      -0.655738       -17.8435
  29   1.0000      -0.636420       -17.3179
  30   1.0000      -0.613461       -16.6931
  31   1.0000      -0.608391       -16.5552
  32   1.0000      -0.607474       -16.5302
  33   1.0000      -0.596136       -16.2217
  34   1.0000      -0.595819       -16.2131
  35   1.0000      -0.585413       -15.9299
  36   1.0000      -0.573265       -15.5993
  37   1.0000      -0.541420       -14.7328
  38   1.0000      -0.540736       -14.7142
  39   1.0000      -0.534217       -14.5368
  40   1.0000      -0.533625       -14.5207
  41   1.0000      -0.519043       -14.1239
  42   1.0000      -0.515951       -14.0397
  43   1.0000      -0.511056       -13.9065
  44   1.0000      -0.480960       -13.0876
  45   1.0000      -0.470885       -12.8134
  46   1.0000      -0.419480       -11.4146
  47   1.0000      -0.414337       -11.2747
  48   1.0000      -0.401991       -10.9387
  49   1.0000      -0.278362        -7.5746
  50   0.0000      -0.166352        -4.5267
  51   0.0000      -0.165447        -4.5021
  52   0.0000      -0.142376        -3.8743
  53   0.0000      -0.079192        -2.1549
  54   0.0000      -0.075181        -2.0458

                 SPIN DOWN ORBITALS
  NO   OCC          E(Eh)            E(eV)
   0   1.0000     -14.518428      -395.0665
   1   1.0000     -14.518423      -395.0664
   2   1.0000     -10.352950      -281.7181
   3   1.0000     -10.352939      -281.7178
   4   1.0000     -10.352864      -281.7158
   5   1.0000     -10.352855      -281.7155
   6   1.0000     -10.338118      -281.3145
   7   1.0000     -10.338117      -281.3145
   8   1.0000     -10.327826      -281.0344
   9   1.0000     -10.327410      -281.0231
  10   1.0000     -10.313960      -280.6571
  11   1.0000     -10.313947      -280.6568
  12   1.0000     -10.313868      -280.6546
  13   1.0000     -10.313856      -280.6543
  14   1.0000      -1.127297       -30.6753
  15   1.0000      -1.126777       -30.6612
  16   1.0000      -0.983849       -26.7719
  17   1.0000      -0.941984       -25.6327
  18   1.0000      -0.915241       -24.9050
  19   1.0000      -0.910236       -24.7688
  20   1.0000      -0.873926       -23.7807
  21   1.0000      -0.839371       -22.8404
  22   1.0000      -0.796734       -21.6802
  23   1.0000      -0.788414       -21.4538
  24   1.0000      -0.772826       -21.0297
  25   1.0000      -0.740004       -20.1365
  26   1.0000      -0.684758       -18.6332
  27   1.0000      -0.657668       -17.8961
  28   1.0000      -0.653769       -17.7900
  29   1.0000      -0.633140       -17.2286
  30   1.0000      -0.611967       -16.6525
  31   1.0000      -0.598545       -16.2873
  32   1.0000      -0.598535       -16.2870
  33   1.0000      -0.594244       -16.1702
  34   1.0000      -0.593744       -16.1566
  35   1.0000      -0.584651       -15.9092
  36   1.0000      -0.572514       -15.5789
  37   1.0000      -0.540293       -14.7021
  38   1.0000      -0.539825       -14.6894
  39   1.0000      -0.533702       -14.5228
  40   1.0000      -0.524951       -14.2846
  41   1.0000      -0.517937       -14.0938
  42   1.0000      -0.509193       -13.8559
  43   1.0000      -0.508395       -13.8341
  44   1.0000      -0.480123       -13.0648
  45   1.0000      -0.452719       -12.3191
  46   1.0000      -0.408857       -11.1256
  47   1.0000      -0.404074       -10.9954
  48   1.0000      -0.385828       -10.4989
  49   0.0000      -0.221339        -6.0229
  50   0.0000      -0.162211        -4.4140
  51   0.0000      -0.143584        -3.9071
  52   0.0000      -0.138614        -3.7719
  53   0.0000      -0.078873        -2.1462

MULLIKEN ATOMIC CHARGES AND SPIN POPULATIONS
--------------------------------------------
   0 C :    0.156352    0.126174
   1 C :   -0.034677    0.046278
   2 C :   -0.035167    0.046541
   3 C :   -0.193772    0.062326
   4 C :   -0.195167    0.063063
   5 H :    0.165371   -0.002849
   6 H :    0.165641   -0.002869
   7 H :    0.130241   -0.002381
   8 H :    0.130268   -0.002425
   9 N :    0.002434    0.159324
  10 C :   -0.261801   -0.011903
  11 H :    0.165648    0.012255
  12 H :    0.152462    0.003445
  13 H :    0.151979    0.003035
  14 C :    0.156742    0.126145
  15 C :   -0.193674    0.062210
  16 C :   -0.195313    0.063202
  17 C :   -0.034641    0.046203
  18 C :   -0.035191    0.046592
  19 H :    0.130247   -0.002375
  20 H :    0.130256   -0.002429
  21 H :    0.165340   -0.002844
  22 H :    0.165683   -0.002872
  23 N :    0.002496    0.159324
  24 C :   -0.261835   -0.011904
  25 H :    0.165629    0.012247
  26 H :    0.152533    0.003502
  27 H :    0.151917    0.002985
Sum of atomic charges         :    1.0000000

LOEWDIN ATOMIC CHARGES AND SPIN POPULATIONS
-------------------------------------------
   0 C :   -0.093445    0.130045
   1 C :   -0.132011    0.057456
   2 C :   -0.131915    0.057475
   3 C :   -0.090121    0.052980
   4 C :   -0.090322    0.053436
   5 H :    0.156662   -0.000011
   6 H :    0.156777   -0.000005
   7 H :    0.157157    0.000008
   8 H :    0.157139    0.000009
   9 N :    0.245041    0.129915
  10 C :   -0.230107    0.008895
  11 H :    0.131128    0.006561
  12 H :    0.132016    0.001730
  13 H :    0.131995    0.001510
  14 C :   -0.093444    0.130042
  15 C :   -0.090099    0.052912
  16 C :   -0.090344    0.053507
  17 C :   -0.132023    0.057434
  18 C :   -0.131904    0.057491
  19 H :    0.157160    0.000008
  20 H :    0.157136    0.000009
  21 H :    0.156646   -0.000011
  22 H :    0.156793   -0.000004
  23 N :    0.245045    0.129913
  24 C :   -0.230098    0.008894
  25 H :    0.131125    0.006558
  26 H :    0.132018    0.001761
  27 H :    0.131993    0.001483

  Mayer bond orders larger than 0.100000
B(  0-C ,  3-C ) :   1.2056 B(  0-C ,  4-C ) :   1.2061 B(  0-C , 14-C ) :   1.2268
B(  1-C ,  4-C ) :   1.6610 B(  1-C ,  5-H ) :   0.9252 B(  1-C ,  9-N ) :   1.1823
B(  2-C ,  3-C ) :   1.6610 B(  2-C ,  6-H ) :   0.9262 B(  2-C ,  9-N ) :   1.1808
B(  3-C ,  7-H ) :   0.9358 B(  4-C ,  8-H ) :   0.9359 B(  9-N , 10-C ) :   0.8909
B( 10-C , 11-H ) :   0.9553 B( 10-C , 12-H ) :   0.9595 B( 10-C , 13-H ) :   0.9597
B( 14-C , 15-C ) :   1.2055 B( 14-C , 16-C ) :   1.2060 B( 15-C , 18-C ) :   1.6611
B( 15-C , 19-H ) :   0.9358 B( 16-C , 17-C ) :   1.6611 B( 16-C , 20-H ) :   0.9359
B( 17-C , 21-H ) :   0.9251 B( 17-C , 23-N ) :   1.1826 B( 18-C , 22-H ) :   0.9263
B( 18-C , 23-N ) :   1.1806 B( 23-N , 24-C ) :   0.8909 B( 24-C , 25-H ) :   0.9553
B( 24-C , 26-H ) :   0.9594 B( 24-C , 27-H ) :   0.9597

-----------------------------------------------------------------------------
         ABSORPTION SPECTRUM VIA TRANSITION ELECTRIC DIPOLE MOMENTS
-----------------------------------------------------------------------------
State   Energy    Wavelength  fosc         T2        TX        TY        TZ
        (cm-1)      (nm)                 (au**2)    (au)      (au)      (au)
-----------------------------------------------------------------------------
   1   15800.6    632.9   0.000009618   0.00020  -0.00010  -0.00728   0.01214
   2   19317.3    517.7   0.210995583   3.59586  -0.01265  -0.00321   1.89623
   3   20684.3    483.5   0.000000477   0.00001  -0.00058   0.00001  -0.00269
   4   29223.3    342.2   0.560072386   6.30943  -0.01663  -0.00027   2.51180
   5   32283.8    309.8   0.000002717   0.00003   0.00499  -0.00008  -0.00169
   6   33299.9    300.3   0.043730470   0.43233   0.00012  -0.65745   0.00924
   7   35206.1    284.0   0.000002369   0.00002   0.00469  -0.00044   0.00009
   8   36866.4    271.2   0.083913869   0.74934   0.00596  -0.00039  -0.86562
   9   36965.3    270.5   0.000230189   0.00205  -0.04526   0.00023  -0.00138
  10   37322.4    267.9   0.003600970   0.03176   0.17821   0.00010   0.00185

FINAL SINGLE POINT ENERGY      -574.757595717886

DIPOLE MOMENT
-------------
                                X             Y             Z
Electronic contribution:     -0.22260       0.00049      -0.00141
Nuclear contribution   :      0.25281      -0.00054       0.00165
                        -----------------------------------------
Total Dipole Moment    :      0.03020      -0.00005       0.00025
                        -----------------------------------------
Magnitude (a.u.)       :      0.03020
Magnitude (Debye)      :      0.07677

Rotational constants in cm-1:     0.094566     0.009960     0.009043
Rotational constants in MHz :  2835.026110   298.607182   271.107597

                             ****ORCA TERMINATED NORMALLY****
TOTAL RUN TIME: 0 days 0 hours 5 minutes 44 seconds 897 msec
